REMARK  Name = diphenhydramine.pdb
REMARK  8 active torsions:
REMARK  status: ('A' for Active; 'I' for Inactive)
REMARK    1  A    between atoms: O_1  and  C_3
REMARK    2  A    between atoms: O_1  and  C_6
REMARK    3  A    between atoms: N_2  and  C_7
REMARK    4  A    between atoms: N_2  and  C_12
REMARK    5  A    between atoms: N_2  and  C_13
REMARK    6  A    between atoms: C_3  and  C_4
REMARK    7  A    between atoms: C_3  and  C_5
REMARK    8  A    between atoms: C_6  and  C_7
REMARK                            x       y       z     vdW  Elec       q    Type
REMARK                         _______ _______ _______ _____ _____    ______ ____
ROOT
ATOM      1  C   UNL     1       0.662   0.784   1.269  0.00  0.00    +0.000 C 
ENDROOT
BRANCH   1   2
ATOM      2  C   UNL     1       0.940   0.072   2.584  0.00  0.00    +0.000 A 
ATOM      3  C   UNL     1       2.239  -0.311   2.951  0.00  0.00    +0.000 A 
ATOM      4  C   UNL     1      -0.128  -0.260   3.435  0.00  0.00    +0.000 A 
ATOM      5  C   UNL     1       2.458  -1.021   4.134  0.00  0.00    +0.000 A 
ATOM      6  C   UNL     1       0.094  -0.966   4.617  0.00  0.00    +0.000 A 
ATOM      7  C   UNL     1       1.387  -1.349   4.964  0.00  0.00    +0.000 A 
ENDBRANCH   1   2
BRANCH   1   8
ATOM      8  C   UNL     1       1.166   2.225   1.216  0.00  0.00    +0.000 A 
ATOM      9  C   UNL     1       1.936   2.706   0.144  0.00  0.00    +0.000 A 
ATOM     10  C   UNL     1       0.759   3.142   2.202  0.00  0.00    +0.000 A 
ATOM     11  C   UNL     1       2.277   4.059   0.059  0.00  0.00    +0.000 A 
ATOM     12  C   UNL     1       1.103   4.493   2.119  0.00  0.00    +0.000 A 
ATOM     13  C   UNL     1       1.857   4.951   1.043  0.00  0.00    +0.000 A 
ENDBRANCH   1   8
BRANCH   1  14
ATOM     14  O   UNL     1       1.159   0.023   0.155  0.00  0.00    +0.000 OA
BRANCH  14  15
ATOM     15  C   UNL     1       0.552  -1.264  -0.039  0.00  0.00    +0.000 C 
BRANCH  15  16
ATOM     16  C   UNL     1      -0.962  -1.197  -0.324  0.00  0.00    +0.000 C 
BRANCH  16  17
ATOM     17  N   UNL     1      -1.630  -2.491  -0.545  0.00  0.00    +0.000 NA
ATOM     18  C   UNL     1      -3.070  -2.273  -0.710  0.00  0.00    +0.000 C 
ATOM     19  C   UNL     1      -1.092  -3.204  -1.702  0.00  0.00    +0.000 C 
ENDBRANCH  16  17
ENDBRANCH  15  16
ENDBRANCH  14  15
ENDBRANCH   1  14
TORSDOF 6
